# vtk DataFile Version 3.0
silly data
ASCII
DATASET STRUCTURED_POINTS
DIMENSIONS 4 4 1
SPACING 1 1 1
ORIGIN 0 0 0
POINT_DATA 16
FIELD FieldData 1
ids 1 16 float
0 0 0 0
0 0 0 0
3 2 2 0
0 1 0 0
