# vtk DataFile Version 3.0
vtk output
ASCII
DATASET STRUCTURED_GRID
DIMENSIONS 5 3 1
POINTS 15 float
0 0 0    1 0 0    1.2 0 0    2.0 -3 0  3 -3 0
0 0.2 0  1 0.2 0  1.2 2 0    2.0 0 0   3 0 0
0 0.4 0  1 0.4 0  1.2 3 0    2.0 3 0   3 3 0
POINT_DATA 15
VECTORS vectors float
1 0 0  1 0 0  1 0.1 0   1 0.1 0   1 0.1 0
1 0 0  1 0 0  1 0.1 0   1 0.1 0   1 0.1 0
1 0 0  1 0 0  1 0.1 0   1 0.1 0   1 0.1 0
