# vtk DataFile Version 3.0
vtk output
ASCII
DATASET STRUCTURED_GRID
DIMENSIONS 4 2 1
POINTS 8 float
0 -0.5 0  1 -0.5 0   1. -0.5 0    2 -0.5 0
0 0.0 0   1 0.0 0    1. 0.0 0     2 0.5 0
POINT_DATA 8
VECTORS vectors float
1 0 0  1 0 0  1 1 0  1 0 0
1 0 0  1 0 0  1 -1 0  1 0 0
