# vtk DataFile Version 3.0
vtk output
ASCII
DATASET STRUCTURED_GRID
DIMENSIONS 5 3 1
POINTS 15 float
0 0 0    1 0 0    4 0 0    4 -3 0  7 -3 0
0 0.2 0  1 0.2 0  4 0.2 0  4 0 0   7 0 0
0 0.4 0  1 0.4 0  4 0.4 0  4 3 0   7 3 0
POINT_DATA 15
VECTORS vectors float
1 0 0  1 0 0  1 0 0  1 1 0  1 1 0
1 0 0  1 0 0  1 0 0  1 1 0  1 1 0
1 0 0  1 0 0  1 0 0  1 1 0  1 1 0
